BEGIN_CFG
 Size
    10
 SuperCell
    0.000000       0.000000       2.807396
    6.716760       6.716760       0.000000
   -3.358380       3.358380      -1.403698
   AtomData:  id type       cartes_x      cartes_y      cartes_z
             1    0       -1.22916713   4.25170930   0.00000000
             2    0        2.12921302   7.61008946   1.40369776
             3    1       -0.89332915   2.12921302   1.40369776
             4    1        2.46505101   5.48759318   0.00000000
             5    1        1.22916713   2.46505101   0.00000000
             6    1        4.58754729   5.82343116   1.40369776
             7    1        0.89332907   4.58754729   1.40369776
             8    1        4.25170922   7.94592744  -0.00000000
             9    2        0.00000000   0.00000000   0.00000000
             10    3        3.35838016   3.35838016   1.40369776
 Feature   conf_id  Al
END_CFG

BEGIN_CFG
 Size
    10
 SuperCell
   -3.358380       3.358380       1.403698
    3.358380       3.358380       1.403698
    0.000000       0.000000      -5.614791
   AtomData:  id type       cartes_x      cartes_y      cartes_z
             1    0       -1.22916713   4.25170930  -2.80739551
             2    0       -1.22916713   4.25170930   0.00000000
             3    1       -0.89332915   2.12921302  -4.21109327
             4    1       -0.89332915   2.12921302  -1.40369776
             5    1        1.22916713   2.46505101   0.00000000
             6    1        1.22916713   2.46505101  -2.80739551
             7    1        0.89332907   4.58754729   1.40369776
             8    1        0.89332907   4.58754729  -1.40369776
             9    2        0.00000000   0.00000000   0.00000000
             10    3        0.00000000   0.00000000  -2.80739551
 Feature   conf_id  Al
END_CFG

BEGIN_CFG
 Size
    10
 SuperCell
    3.358380      -3.358380       1.403698
    0.000000       0.000000      -5.614791
    3.358380       3.358380       1.403698
   AtomData:  id type       cartes_x      cartes_y      cartes_z
             1    0        2.12921302   0.89332915  -4.21109327
             2    0        2.12921302   0.89332915  -1.40369776
             3    1        2.46505101  -1.22916713  -2.80739551
             4    1        2.46505101  -1.22916713   0.00000000
             5    1        4.58754729  -0.89332915   1.40369776
             6    1        4.58754729  -0.89332915  -1.40369776
             7    1        4.25170922   1.22916713   0.00000000
             8    1        4.25170922   1.22916713  -2.80739551
             9    2        0.00000000   0.00000000   0.00000000
             10    3        0.00000000   0.00000000  -2.80739551
 Feature   conf_id  Al
END_CFG

BEGIN_CFG
 Size
    10
 SuperCell
    0.000000       0.000000       2.807396
    6.716760       6.716760       0.000000
   -3.358380       3.358380      -1.403698
   AtomData:  id type       cartes_x      cartes_y      cartes_z
             1    0       -1.22916713   4.25170930   0.00000000
             2    1        2.12921302   7.61008946   1.40369776
             3    0       -0.89332915   2.12921302   1.40369776
             4    1        2.46505101   5.48759318   0.00000000
             5    1        1.22916713   2.46505101   0.00000000
             6    1        4.58754729   5.82343116   1.40369776
             7    1        0.89332907   4.58754729   1.40369776
             8    1        4.25170922   7.94592744  -0.00000000
             9    2        0.00000000   0.00000000   0.00000000
             10    3        3.35838016   3.35838016   1.40369776
 Feature   conf_id  Al
END_CFG

BEGIN_CFG
 Size
    10
 SuperCell
   -3.358380       3.358380       1.403698
    3.358380       3.358380       1.403698
    0.000000       0.000000      -5.614791
   AtomData:  id type       cartes_x      cartes_y      cartes_z
             1    0       -1.22916713   4.25170930  -2.80739551
             2    1       -1.22916713   4.25170930   0.00000000
             3    0       -0.89332915   2.12921302  -4.21109327
             4    1       -0.89332915   2.12921302  -1.40369776
             5    1        1.22916713   2.46505101   0.00000000
             6    1        1.22916713   2.46505101  -2.80739551
             7    1        0.89332907   4.58754729   1.40369776
             8    1        0.89332907   4.58754729  -1.40369776
             9    2        0.00000000   0.00000000   0.00000000
             10    3        0.00000000   0.00000000  -2.80739551
 Feature   conf_id  Al
END_CFG

BEGIN_CFG
 Size
    10
 SuperCell
    3.358380      -3.358380       1.403698
    0.000000       0.000000      -5.614791
    3.358380       3.358380       1.403698
   AtomData:  id type       cartes_x      cartes_y      cartes_z
             1    0        2.12921302   0.89332915  -4.21109327
             2    1        2.12921302   0.89332915  -1.40369776
             3    0        2.46505101  -1.22916713  -2.80739551
             4    1        2.46505101  -1.22916713   0.00000000
             5    1        4.58754729  -0.89332915   1.40369776
             6    1        4.58754729  -0.89332915  -1.40369776
             7    1        4.25170922   1.22916713   0.00000000
             8    1        4.25170922   1.22916713  -2.80739551
             9    2        0.00000000   0.00000000   0.00000000
             10    3        0.00000000   0.00000000  -2.80739551
 Feature   conf_id  Al
END_CFG

BEGIN_CFG
 Size
    10
 SuperCell
    0.000000       0.000000       2.807396
    6.716760       6.716760       0.000000
   -3.358380       3.358380      -1.403698
   AtomData:  id type       cartes_x      cartes_y      cartes_z
             1    0       -1.22916713   4.25170930   0.00000000
             2    1        2.12921302   7.61008946   1.40369776
             3    1       -0.89332915   2.12921302   1.40369776
             4    0        2.46505101   5.48759318   0.00000000
             5    1        1.22916713   2.46505101   0.00000000
             6    1        4.58754729   5.82343116   1.40369776
             7    1        0.89332907   4.58754729   1.40369776
             8    1        4.25170922   7.94592744  -0.00000000
             9    2        0.00000000   0.00000000   0.00000000
             10    3        3.35838016   3.35838016   1.40369776
 Feature   conf_id  Al
END_CFG

BEGIN_CFG
 Size
    10
 SuperCell
   -3.358380       3.358380       1.403698
    3.358380       3.358380       1.403698
    0.000000       0.000000      -5.614791
   AtomData:  id type       cartes_x      cartes_y      cartes_z
             1    0       -1.22916713   4.25170930  -2.80739551
             2    1       -1.22916713   4.25170930   0.00000000
             3    1       -0.89332915   2.12921302  -4.21109327
             4    0       -0.89332915   2.12921302  -1.40369776
             5    1        1.22916713   2.46505101   0.00000000
             6    1        1.22916713   2.46505101  -2.80739551
             7    1        0.89332907   4.58754729   1.40369776
             8    1        0.89332907   4.58754729  -1.40369776
             9    2        0.00000000   0.00000000   0.00000000
             10    3        0.00000000   0.00000000  -2.80739551
 Feature   conf_id  Al
END_CFG

BEGIN_CFG
 Size
    10
 SuperCell
    3.358380      -3.358380       1.403698
    0.000000       0.000000      -5.614791
    3.358380       3.358380       1.403698
   AtomData:  id type       cartes_x      cartes_y      cartes_z
             1    0        2.12921302   0.89332915  -4.21109327
             2    1        2.12921302   0.89332915  -1.40369776
             3    1        2.46505101  -1.22916713  -2.80739551
             4    0        2.46505101  -1.22916713   0.00000000
             5    1        4.58754729  -0.89332915   1.40369776
             6    1        4.58754729  -0.89332915  -1.40369776
             7    1        4.25170922   1.22916713   0.00000000
             8    1        4.25170922   1.22916713  -2.80739551
             9    2        0.00000000   0.00000000   0.00000000
             10    3        0.00000000   0.00000000  -2.80739551
 Feature   conf_id  Al
END_CFG

BEGIN_CFG
 Size
    10
 SuperCell
    0.000000       0.000000       2.807396
    6.716760       6.716760       0.000000
   -3.358380       3.358380      -1.403698
   AtomData:  id type       cartes_x      cartes_y      cartes_z
             1    0       -1.22916713   4.25170930   0.00000000
             2    1        2.12921302   7.61008946   1.40369776
             3    1       -0.89332915   2.12921302   1.40369776
             4    1        2.46505101   5.48759318   0.00000000
             5    0        1.22916713   2.46505101   0.00000000
             6    1        4.58754729   5.82343116   1.40369776
             7    1        0.89332907   4.58754729   1.40369776
             8    1        4.25170922   7.94592744  -0.00000000
             9    2        0.00000000   0.00000000   0.00000000
             10    3        3.35838016   3.35838016   1.40369776
 Feature   conf_id  Al
END_CFG

BEGIN_CFG
 Size
    10
 SuperCell
    0.000000       0.000000       2.850049
    6.818810       6.818810       0.000000
   -3.409405       3.409405      -1.425025
   AtomData:  id type       cartes_x      cartes_y      cartes_z
             1    0       -1.24784226   4.31630689   0.00000000
             2    1        2.16156284   7.72571200   1.42502459
             3    1       -0.90690179   2.16156284   1.42502459
             4    1        2.50250332   5.57096795   0.00000000
             5    0        1.24784226   2.50250332   0.00000000
             6    1        4.65724737   5.91190842   1.42502459
             7    1        0.90690170   4.65724737   1.42502459
             8    1        4.31630681   8.06665247  -0.00000000
             9    2        0.00000000   0.00000000   0.00000000
             10    2        3.40940511   3.40940511   1.42502459
 Feature   conf_id  Al
END_CFG

